16211617
  -OEChem-08192319572D

 46 44  0     1  0  0  0  0  0999 V2000
    4.4340    1.6200    0.0000 O   0  0  0  0  0  0  0  0  0  0  0  0
    2.2690    6.6200    0.0000 O   0  0  0  0  0  0  0  0  0  0  0  0
    5.3001    3.1200    0.0000 O   0  0  0  0  0  0  0  0  0  0  0  0
    1.4030    5.1200    0.0000 O   0  0  0  0  0  0  0  0  0  0  0  0
    2.7020    1.6200    0.0000 C   0  0  3  0  0  0  0  0  0  0  0  0
    1.8360    2.1200    0.0000 C   0  0  0  0  0  0  0  0  0  0  0  0
    3.5680    2.1200    0.0000 C   0  0  0  0  0  0  0  0  0  0  0  0
    2.7020    0.6200    0.0000 C   0  0  0  0  0  0  0  0  0  0  0  0
    4.8671    6.1200    0.0000 C   0  0  0  0  0  0  0  0  0  0  0  0
    4.0010    6.6200    0.0000 C   0  0  0  0  0  0  0  0  0  0  0  0
    0.9699    1.6200    0.0000 C   0  0  0  0  0  0  0  0  0  0  0  0
    5.7331    6.6200    0.0000 C   0  0  0  0  0  0  0  0  0  0  0  0
    3.1350    6.1200    0.0000 C   0  0  0  0  0  0  0  0  0  0  0  0
    6.5991    6.1200    0.0000 C   0  0  0  0  0  0  0  0  0  0  0  0
    5.3001    2.1200    0.0000 C   0  0  0  0  0  0  0  0  0  0  0  0
    6.1661    1.6200    0.0000 C   0  0  0  0  0  0  0  0  0  0  0  0
    1.4030    6.1200    0.0000 C   0  0  0  0  0  0  0  0  0  0  0  0
    0.5369    6.6200    0.0000 C   0  0  0  0  0  0  0  0  0  0  0  0
    3.2389    1.3100    0.0000 H   0  0  0  0  0  0  0  0  0  0  0  0
    2.2345    2.5950    0.0000 H   0  0  0  0  0  0  0  0  0  0  0  0
    1.4374    2.5950    0.0000 H   0  0  0  0  0  0  0  0  0  0  0  0
    3.9666    2.5950    0.0000 H   0  0  0  0  0  0  0  0  0  0  0  0
    3.1695    2.5950    0.0000 H   0  0  0  0  0  0  0  0  0  0  0  0
    2.0820    0.6200    0.0000 H   0  0  0  0  0  0  0  0  0  0  0  0
    2.7020    0.0000    0.0000 H   0  0  0  0  0  0  0  0  0  0  0  0
    3.3220    0.6200    0.0000 H   0  0  0  0  0  0  0  0  0  0  0  0
    4.4685    5.6450    0.0000 H   0  0  0  0  0  0  0  0  0  0  0  0
    5.2656    5.6450    0.0000 H   0  0  0  0  0  0  0  0  0  0  0  0
    4.3996    7.0950    0.0000 H   0  0  0  0  0  0  0  0  0  0  0  0
    3.6025    7.0950    0.0000 H   0  0  0  0  0  0  0  0  0  0  0  0
    0.6599    2.1569    0.0000 H   0  0  0  0  0  0  0  0  0  0  0  0
    0.4330    1.3100    0.0000 H   0  0  0  0  0  0  0  0  0  0  0  0
    1.2800    1.0831    0.0000 H   0  0  0  0  0  0  0  0  0  0  0  0
    6.1316    7.0950    0.0000 H   0  0  0  0  0  0  0  0  0  0  0  0
    5.3346    7.0950    0.0000 H   0  0  0  0  0  0  0  0  0  0  0  0
    2.7365    5.6450    0.0000 H   0  0  0  0  0  0  0  0  0  0  0  0
    3.5335    5.6450    0.0000 H   0  0  0  0  0  0  0  0  0  0  0  0
    6.2891    5.5831    0.0000 H   0  0  0  0  0  0  0  0  0  0  0  0
    7.1360    5.8100    0.0000 H   0  0  0  0  0  0  0  0  0  0  0  0
    6.9091    6.6569    0.0000 H   0  0  0  0  0  0  0  0  0  0  0  0
    5.8561    1.0831    0.0000 H   0  0  0  0  0  0  0  0  0  0  0  0
    6.7030    1.3100    0.0000 H   0  0  0  0  0  0  0  0  0  0  0  0
    6.4761    2.1569    0.0000 H   0  0  0  0  0  0  0  0  0  0  0  0
    0.8469    7.1569    0.0000 H   0  0  0  0  0  0  0  0  0  0  0  0
    0.0000    6.9300    0.0000 H   0  0  0  0  0  0  0  0  0  0  0  0
    0.2269    6.0831    0.0000 H   0  0  0  0  0  0  0  0  0  0  0  0
  1  7  1  0  0  0  0
  1 15  1  0  0  0  0
  2 13  1  0  0  0  0
  2 17  1  0  0  0  0
  3 15  2  0  0  0  0
  4 17  2  0  0  0  0
  5  6  1  0  0  0  0
  5  7  1  0  0  0  0
  5  8  1  0  0  0  0
  5 19  1  0  0  0  0
  6 11  1  0  0  0  0
  6 20  1  0  0  0  0
  6 21  1  0  0  0  0
  7 22  1  0  0  0  0
  7 23  1  0  0  0  0
  8 24  1  0  0  0  0
  8 25  1  0  0  0  0
  8 26  1  0  0  0  0
  9 10  1  0  0  0  0
  9 12  1  0  0  0  0
  9 27  1  0  0  0  0
  9 28  1  0  0  0  0
 10 13  1  0  0  0  0
 10 29  1  0  0  0  0
 10 30  1  0  0  0  0
 11 31  1  0  0  0  0
 11 32  1  0  0  0  0
 11 33  1  0  0  0  0
 12 14  1  0  0  0  0
 12 34  1  0  0  0  0
 12 35  1  0  0  0  0
 13 36  1  0  0  0  0
 13 37  1  0  0  0  0
 14 38  1  0  0  0  0
 14 39  1  0  0  0  0
 14 40  1  0  0  0  0
 15 16  1  0  0  0  0
 16 41  1  0  0  0  0
 16 42  1  0  0  0  0
 16 43  1  0  0  0  0
 17 18  1  0  0  0  0
 18 44  1  0  0  0  0
 18 45  1  0  0  0  0
 18 46  1  0  0  0  0
M  END
> <PUBCHEM_COMPOUND_CID>
16211617

> <PUBCHEM_COMPOUND_CANONICALIZED>
1

> <PUBCHEM_CACTVS_COMPLEXITY>
168

> <PUBCHEM_CACTVS_HBOND_ACCEPTOR>
4

> <PUBCHEM_CACTVS_HBOND_DONOR>
0

> <PUBCHEM_CACTVS_ROTATABLE_BOND>
9

> <PUBCHEM_CACTVS_SUBSKEYS>
AAADceBwOAAAAAAAAAAAAAAAAAAAAAAAAAAAAAAAAAAAAAAAAAAAGgAAAAAADQCggAICCAAABAAIAACQCAAAAAAAAAAAAAAAAAAAAAIAAAACAAAEAAAAAACAAAAIAAAAAAAAAAAAAAAAAAAAAAAAAAAAAA==

> <PUBCHEM_IUPAC_OPENEYE_NAME>
2-methylbutyl acetate;pentyl acetate

> <PUBCHEM_IUPAC_CAS_NAME>
acetic acid 2-methylbutyl ester;acetic acid pentyl ester

> <PUBCHEM_IUPAC_NAME_MARKUP>
2-methylbutyl acetate;pentyl acetate

> <PUBCHEM_IUPAC_NAME>
2-methylbutyl acetate;pentyl acetate

> <PUBCHEM_IUPAC_SYSTEMATIC_NAME>
2-methylbutyl ethanoate;pentyl ethanoate

> <PUBCHEM_IUPAC_TRADITIONAL_NAME>
acetic acid amyl ester;acetic acid 2-methylbutyl ester

> <PUBCHEM_IUPAC_INCHI>
InChI=1S/2C7H14O2/c1-4-6(2)5-9-7(3)8;1-3-4-5-6-9-7(2)8/h6H,4-5H2,1-3H3;3-6H2,1-2H3

> <PUBCHEM_IUPAC_INCHIKEY>
LSUIXWQPOJYELL-UHFFFAOYSA-N

> <PUBCHEM_EXACT_MASS>
260.19875937

> <PUBCHEM_MOLECULAR_FORMULA>
C14H28O4

> <PUBCHEM_MOLECULAR_WEIGHT>
260.37

> <PUBCHEM_OPENEYE_CAN_SMILES>
CCCCCOC(=O)C.CCC(C)COC(=O)C

> <PUBCHEM_OPENEYE_ISO_SMILES>
CCCCCOC(=O)C.CCC(C)COC(=O)C

> <PUBCHEM_CACTVS_TPSA>
52.6

> <PUBCHEM_MONOISOTOPIC_WEIGHT>
260.19875937

> <PUBCHEM_TOTAL_CHARGE>
0

> <PUBCHEM_HEAVY_ATOM_COUNT>
18

> <PUBCHEM_ATOM_DEF_STEREO_COUNT>
0

> <PUBCHEM_ATOM_UDEF_STEREO_COUNT>
1

> <PUBCHEM_BOND_DEF_STEREO_COUNT>
0

> <PUBCHEM_BOND_UDEF_STEREO_COUNT>
0

> <PUBCHEM_ISOTOPIC_ATOM_COUNT>
0

> <PUBCHEM_COMPONENT_COUNT>
2

> <PUBCHEM_CACTVS_TAUTO_COUNT>
-1

> <PUBCHEM_COORDINATE_TYPE>
1
5
255

> <PUBCHEM_BONDANNOTATIONS>
5  8  3

$$$$
